# vtk DataFile Version 5.1
vtk output
ASCII
DATASET POLYDATA
POINTS 20000 float
0 0 1 0 0 1 0 0 1 
0 0 1 0 0 1 0 0 1 
0 0 1 0 0 1 0 0 1 
0 0 1 0 0 1 0 0 1 
0 0 1 0 0 1 0 0 1 
0 0 1 0 0 1 0 0 1 
0 0 1 0 0 1 0 0 1 
0 0 1 0 0 1 0 0 1 
0 0 1 0 0 1 0 0 1 
0 0 1 0 0 1 0 0 1 
0 0 1 0 0 1 0 0 1 
0 0 1 0 0 1 0 0 1 
0 0 1 0 0 1 0 0 1 
0 0 1 0 0 1 0 0 1 
0 0 1 0 0 1 0 0 1 
0 0 1 0 0 1 0 0 1 
0 0 1 0 0 1 -0 0 1 
-0 0 1 -0 0 1 -0 0 1 
-0 0 1 -0 0 1 -0 0 1 
-0 0 1 -0 0 1 -0 0 1 
-0 0 1 -0 0 1 -0 0 1 
-0 0 1 -0 0 1 -0 0 1 
-0 0 1 -0 0 1 -0 0 1 
-0 0 1 -0 0 1 -0 0 1 
-0 0 1 -0 0 1 -0 0 1 
-0 0 1 -0 0 1 -0 0 1 
-0 0 1 -0 0 1 -0 0 1 
-0 0 1 -0 0 1 -0 0 1 
-0 0 1 -0 0 1 -0 0 1 
-0 0 1 -0 0 1 -0 0 1 
-0 0 1 -0 0 1 -0 0 1 
-0 0 1 -0 0 1 -0 0 1 
-0 0 1 -0 0 1 -0 0 1 
-0 0 1 -0 -0 1 -0 -0 1 
-0 -0 1 -0 -0 1 -0 -0 1 
-0 -0 1 -0 -0 1 -0 -0 1 
-0 -0 1 -0 -0 1 -0 -0 1 
-0 -0 1 -0 -0 1 -0 -0 1 
-0 -0 1 -0 -0 1 -0 -0 1 
-0 -0 1 -0 -0 1 -0 -0 1 
-0 -0 1 -0 -0 1 -0 -0 1 
-0 -0 1 -0 -0 1 -0 -0 1 
-0 -0 1 -0 -0 1 -0 -0 1 
-0 -0 1 -0 -0 1 -0 -0 1 
-0 -0 1 -0 -0 1 -0 -0 1 
-0 -0 1 -0 -0 1 -0 -0 1 
-0 -0 1 -0 -0 1 -0 -0 1 
-0 -0 1 -0 -0 1 -0 -0 1 
-0 -0 1 -0 -0 1 -0 -0 1 
-0 -0 1 -0 -0 1 -0 -0 1 
0 -0 1 0 -0 1 0 -0 1 
0 -0 1 0 -0 1 0 -0 1 
0 -0 1 0 -0 1 0 -0 1 
0 -0 1 0 -0 1 0 -0 1 
0 -0 1 0 -0 1 0 -0 1 
0 -0 1 0 -0 1 0 -0 1 
0 -0 1 0 -0 1 0 -0 1 
0 -0 1 0 -0 1 0 -0 1 
0 -0 1 0 -0 1 0 -0 1 
0 -0 1 0 -0 1 0 -0 1 
0 -0 1 0 -0 1 0 -0 1 
0 -0 1 0 -0 1 0 -0 1 
0 -0 1 0 -0 1 0 -0 1 
0 -0 1 0 -0 1 0 -0 1 
0 -0 1 0 -0 1 0 -0 1 
0 -0 1 0 -0 1 0 -0 1 
0 -0 1 0 -0 1 0.0317279 0 0.999497 
0.0317121 0.0010016 0.999497 0.0316647 0.00200221 0.999497 0.0315857 0.00300082 0.999497 
0.0314752 0.00399644 0.999497 0.0313334 0.00498808 0.999497 0.0311603 0.00597474 0.999497 
0.0309562 0.00695545 0.999497 0.0307212 0.00792922 0.999497 0.0304555 0.00889509 0.999497 
0.0301595 0.0098521 0.999497 0.0298335 0.0107993 0.999497 0.0294777 0.0117357 0.999497 
0.0290925 0.0126604 0.999497 0.0286784 0.0135725 0.999497 0.0282356 0.0144711 0.999497 
0.0277647 0.0153552 0.999497 0.0272661 0.0162241 0.999497 0.0267404 0.0170767 0.999497 
0.0261879 0.0179124 0.999497 0.0256094 0.0187302 0.999497 0.0250054 0.0195293 0.999497 
0.0243764 0.0203089 0.999497 0.0237231 0.0210683 0.999497 0.0230462 0.0218067 0.999497 
0.0223463 0.0225234 0.999497 0.0216241 0.0232176 0.999497 0.0208804 0.0238887 0.999497 
0.0201159 0.024536 0.999497 0.0193313 0.0251588 0.999497 0.0185274 0.0257565 0.999497 
0.0177051 0.0263285 0.999497 0.0168651 0.0268743 0.999497 0.0160083 0.0273933 0.999497 
0.0151356 0.027885 0.999497 0.0142478 0.028349 0.999497 0.0133457 0.0287846 0.999497 
0.0124304 0.0291916 0.999497 0.0115027 0.0295694 0.999497 0.0105635 0.0299178 0.999497 
0.00961373 0.0302364 0.999497 0.00865442 0.0305248 0.999497 0.00768648 0.0307828 0.999497 
0.00671088 0.0310101 0.999497 0.00572859 0.0312065 0.999497 0.0047406 0.0313718 0.999497 
0.00374787 0.0315058 0.999497 0.00275141 0.0316084 0.999497 0.00175221 0.0316795 0.999497 
0.000751258 0.031719 0.999497 -0.00025044 0.0317269 0.999497 -0.00125189 0.0317032 0.999497 
-0.00225209 0.0316479 0.999497 -0.00325005 0.031561 0.999497 -0.00424476 0.0314427 0.999497 
-0.00523525 0.031293 0.999497 -0.00622051 0.0311122 0.999497 -0.00719958 0.0309003 0.999497 
-0.00817147 0.0306576 0.999497 -0.00913521 0.0303844 0.999497 -0.0100898 0.0300808 0.999497 
-0.0110344 0.0297473 0.999497 -0.011968 0.0293842 0.999497 -0.0128897 0.0289917 0.999497 
-0.0137985 0.0285703 0.999497 -0.0146935 0.0281205 0.999497 -0.0155739 0.0276426 0.999497 
-0.0164388 0.0271372 0.999497 -0.0172873 0.0266047 0.999497 -0.0181185 0.0260457 0.999497 
-0.0189317 0.0254608 0.999497 -0.019726 0.0248504 0.999497 -0.0205007 0.0242153 0.999497 
-0.0212549 0.0235561 0.999497 -0.021988 0.0228734 0.999497 -0.0226991 0.0221678 0.999497 
-0.0233876 0.0214402 0.999497 -0.0240528 0.0206912 0.999497 -0.024694 0.0199216 0.999497 
-0.0253106 0.0191321 0.999497 -0.0259019 0.0183236 0.999497 -0.0264675 0.0174967 0.999497 
-0.0270066 0.0166525 0.999497 -0.0275188 0.0157916 0.999497 -0.0280036 0.014915 0.999497 
-0.0284605 0.0140235 0.999497 -0.0288891 0.0131181 0.999497 -0.0292888 0.0121996 0.999497 
-0.0296593 0.0112689 0.999497 -0.0300003 0.010327 0.999497 -0.0303113 0.00937476 0.999497 
-0.0305922 0.0084132 0.999497 -0.0308425 0.00744326 0.999497 -0.0310621 0.0064659 0.999497 
-0.0312507 0.00548209 0.999497 -0.0314082 0.00449282 0.999497 -0.0315344 0.00349907 0.999497 
-0.0316291 0.00250183 0.999497 -0.0316924 0.0015021 0.999497 -0.031724 0.000500865 0.999497 
-0.031724 -0.000500865 0.999497 -0.0316924 -0.0015021 0.999497 -0.0316291 -0.00250183 0.999497 
-0.0315344 -0.00349907 0.999497 -0.0314082 -0.00449282 0.999497 -0.0312507 -0.00548209 0.999497 
-0.0310621 -0.0064659 0.999497 -0.0308425 -0.00744326 0.999497 -0.0305922 -0.0084132 0.999497 
-0.0303113 -0.00937476 0.999497 -0.0300003 -0.010327 0.999497 -0.0296593 -0.0112689 0.999497 
-0.0292888 -0.0121996 0.999497 -0.0288891 -0.0131181 0.999497 -0.0284605 -0.0140235 0.999497 
-0.0280036 -0.014915 0.999497 -0.0275188 -0.0157916 0.999497 -0.0270066 -0.0166525 0.999497 
-0.0264675 -0.0174967 0.999497 -0.0259019 -0.0183236 0.999497 -0.0253106 -0.0191321 0.999497 
-0.024694 -0.0199216 0.999497 -0.0240528 -0.0206912 0.999497 -0.0233876 -0.0214402 0.999497 
-0.0226991 -0.0221678 0.999497 -0.021988 -0.0228734 0.999497 -0.0212549 -0.0235561 0.999497 
-0.0205007 -0.0242153 0.999497 -0.019726 -0.0248504 0.999497 -0.0189317 -0.0254608 0.999497 
-0.0181185 -0.0260457 0.999497 -0.0172873 -0.0266047 0.999497 -0.0164388 -0.0271372 0.999497 
-0.0155739 -0.0276426 0.999497 -0.0146935 -0.0281205 0.999497 -0.0137985 -0.0285703 0.999497 
-0.0128897 -0.0289917 0.999497 -0.011968 -0.0293842 0.999497 -0.0110344 -0.0297473 0.999497 
-0.0100898 -0.0300808 0.999497 -0.00913521 -0.0303844 0.999497 -0.00817147 -0.0306576 0.999497 
-0.00719958 -0.0309003 0.999497 -0.00622051 -0.0311122 0.999497 -0.00523525 -0.031293 0.999497 
-0.00424476 -0.0314427 0.999497 -0.00325005 -0.031561 0.999497 -0.00225209 -0.0316479 0.999497 
-0.00125189 -0.0317032 0.999497 -0.00025044 -0.0317269 0.999497 0.000751258 -0.031719 0.999497 
0.00175221 -0.0316795 0.999497 0.00275141 -0.0316084 0.999497 0.00374787 -0.0315058 0.999497 
0.0047406 -0.0313718 0.999497 0.00572859 -0.0312065 0.999497 0.00671088 -0.0310101 0.999497 
0.00768648 -0.0307828 0.999497 0.00865442 -0.0305248 0.999497 0.00961373 -0.0302364 0.999497 
0.0105635 -0.0299178 0.999497 0.0115027 -0.0295694 0.999497 0.0124304 -0.0291916 0.999497 
0.0133457 -0.0287846 0.999497 0.0142478 -0.028349 0.999497 0.0151356 -0.027885 0.999497 
0.0160083 -0.0273933 0.999497 0.0168651 -0.0268743 0.999497 0.0177051 -0.0263285 0.999497 
0.0185274 -0.0257565 0.999497 0.0193313 -0.0251588 0.999497 0.0201159 -0.024536 0.999497 
0.0208804 -0.0238887 0.999497 0.0216241 -0.0232176 0.999497 0.0223463 -0.0225234 0.999497 
0.0230462 -0.0218067 0.999497 0.0237231 -0.0210683 0.999497 0.0243764 -0.0203089 0.999497 
0.0250054 -0.0195293 0.999497 0.0256094 -0.0187302 0.999497 0.0261879 -0.0179124 0.999497 
0.0267404 -0.0170767 0.999497 0.0272661 -0.0162241 0.999497 0.0277647 -0.0153552 0.999497 
0.0282356 -0.0144711 0.999497 0.0286784 -0.0135725 0.999497 0.0290925 -0.0126604 0.999497 
0.0294777 -0.0117357 0.999497 0.0298335 -0.0107993 0.999497 0.0301595 -0.0098521 0.999497 
0.0304555 -0.00889509 0.999497 0.0307212 -0.00792922 0.999497 0.0309562 -0.00695545 0.999497 
0.0311603 -0.00597474 0.999497 0.0313334 -0.00498808 0.999497 0.0314752 -0.00399644 0.999497 
0.0315857 -0.00300082 0.999497 0.0316647 -0.00200221 0.999497 0.0317121 -0.0010016 0.999497 
0.0317279 -7.7711e-18 0.999497 0.0634239 0 0.997987 0.0633923 0.0020022 0.997987 
0.0632975 0.00400241 0.997987 0.0631396 0.00599862 0.997987 0.0629188 0.00798886 0.997987 
0.0626352 0.00997113 0.997987 0.0622892 0.0119435 0.997987 0.0618811 0.0139039 0.997987 
0.0614114 0.0158505 0.997987 0.0608804 0.0177812 0.997987 0.0602887 0.0196943 0.997987 
0.0596369 0.0215877 0.997987 0.0589257 0.0234596 0.997987 0.0581558 0.0253081 0.997987 
0.0573279 0.0271314 0.997987 0.0564428 0.0289276 0.997987 0.0555014 0.030695 0.997987 
0.0545048 0.0324318 0.997987 0.0534538 0.0341363 0.997987 0.0523495 0.0358067 0.997987 
0.0511931 0.0374415 0.997987 0.0499856 0.0390389 0.997987 0.0487283 0.0405974 0.997987 
0.0474224 0.0421155 0.997987 0.0460692 0.0435915 0.997987 0.0446701 0.0450241 0.997987 
0.0432265 0.0464119 0.997987 0.0417398 0.0477533 0.997987 0.0402115 0.0490472 0.997987 
0.0386431 0.0502922 0.997987 0.0370362 0.051487 0.997987 0.0353924 0.0526305 0.997987 
0.0337133 0.0537216 0.997987 0.0320006 0.0547591 0.997987 0.0302559 0.055742 0.997987 
0.0284812 0.0566694 0.997987 0.026678 0.0575402 0.997987 0.0248482 0.0583537 0.997987 
0.0229937 0.0591091 0.997987 0.0211163 0.0598055 0.997987 0.0192178 0.0604423 0.997987 
0.0173001 0.0610188 0.997987 0.0153652 0.0615346 0.997987 0.013415 0.061989 0.997987 
0.0114514 0.0623816 0.997987 0.00947642 0.062712 0.997987 0.00749197 0.0629799 0.997987 
0.00550005 0.063185 0.997987 0.00350265 0.0633271 0.997987 0.00150176 0.0634061 0.997987 
-0.000500628 0.0634219 0.997987 -0.00250252 0.0633745 0.997987 -0.00450191 0.0632639 0.997987 
-0.00649682 0.0630903 0.997987 -0.00848525 0.0628538 0.997987 -0.0104652 0.0625546 0.997987 
-0.0124348 0.062193 0.997987 -0.0143919 0.0617695 0.997987 -0.0163347 0.0612843 0.997987 
-0.0182612 0.0607381 0.997987 -0.0201695 0.0601314 0.997987 -0.0220577 0.0594647 0.997987 
-0.023924 0.0587387 0.997987 -0.0257663 0.0579542 0.997987 -0.027583 0.0571119 0.997987 
-0.0293722 0.0562127 0.997987 -0.0311321 0.0552574 0.997987 -0.032861 0.0542471 0.997987 
-0.0345571 0.0531827 0.997987 -0.0362188 0.0520653 0.997987 -0.0378444 0.0508959 0.997987 
-0.0394322 0.0496759 0.997987 -0.0409808 0.0484063 0.997987 -0.0424885 0.0470885 0.997987 
-0.0439538 0.0457237 0.997987 -0.0453753 0.0443133 0.997987 -0.0467516 0.0428588 0.997987 
[...]
POINT_DATA 20000
SCALARS Y_lm float
LOOKUP_TABLE default
-0 -0 -0 -0 -0 -0 -0 -0 -0 
-0 -0 -0 -0 -0 -0 -0 -0 -0 
-0 -0 -0 -0 -0 -0 -0 -0 -0 
-0 -0 -0 -0 -0 -0 -0 -0 -0 
-0 -0 -0 -0 -0 -0 -0 -0 -0 
-0 -0 -0 -0 -0 0 0 0 0 
0 0 0 0 0 0 0 0 0 
0 0 0 0 0 0 0 0 0 
0 0 0 0 0 0 0 0 0 
0 0 0 0 0 0 0 0 0 
0 0 0 0 0 0 0 0 0 
0 0 0 0 0 0 0 0 0 
0 0 0 0 0 0 0 0 0 
0 0 0 0 0 0 0 0 0 
0 0 0 0 0 0 0 0 0 
0 0 0 0 0 0 0 0 0 
0 0 0 0 0 0 0 0 0 
0 0 0 0 0 0 0 0 0 
0 0 0 0 0 0 0 0 0 
0 0 0 0 0 0 0 0 0 
0 0 0 0 0 0 0 0 0 
0 0 0 0 0 0 0 0 0 
0 0 -0.024499 -0.0244868 -0.0244502 -0.0243892 -0.0243039 -0.0241944 -0.0240607 
-0.0239031 -0.0237216 -0.0235165 -0.023288 -0.0230362 -0.0227615 -0.0224641 -0.0221443 -0.0218024 
-0.0214388 -0.0210538 -0.0206478 -0.0202213 -0.0197746 -0.0193081 -0.0188225 -0.018318 -0.0177954 
-0.0172549 -0.0166973 -0.016123 -0.0155327 -0.0149268 -0.0143061 -0.0136712 -0.0130226 -0.012361 
-0.0116871 -0.0110015 -0.010305 -0.00959824 -0.00888188 -0.00815667 -0.00742333 -0.00668259 -0.00593519 
-0.00518187 -0.00442339 -0.0036605 -0.00289395 -0.00212453 -0.00135298 -0.000580091 0.00019338 0.000966658 
0.00173897 0.00250955 0.00327763 0.00404245 0.00480323 0.00555922 0.00630968 0.00705384 0.00779097 
0.00852034 0.00924121 0.00995287 0.0106546 0.0113457 0.0120255 0.0126934 0.0133485 0.0139904 
0.0146183 0.0152317 0.0158298 0.0164122 0.0169782 0.0175273 0.0180589 0.0185726 0.0190677 
0.0195438 0.0200004 0.0204371 0.0208534 0.0212489 0.0216233 0.0219761 0.022307 0.0226156 
0.0229017 0.023165 0.0234052 0.023622 0.0238153 0.0239849 0.0241306 0.0242522 0.0243496 
0.0244227 0.0244716 0.024496 0.024496 0.0244716 0.0244227 0.0243496 0.0242522 0.0241306 
0.0239849 0.0238153 0.023622 0.0234052 0.023165 0.0229017 0.0226156 0.022307 0.0219761 
0.0216233 0.0212489 0.0208534 0.0204371 0.0200004 0.0195438 0.0190677 0.0185726 0.0180589 
0.0175273 0.0169782 0.0164122 0.0158298 0.0152317 0.0146183 0.0139904 0.0133485 0.0126934 
0.0120255 0.0113457 0.0106546 0.00995287 0.00924121 0.00852034 0.00779097 0.00705384 0.00630968 
0.00555922 0.00480323 0.00404245 0.00327763 0.00250955 0.00173897 0.000966658 0.00019338 -0.000580091 
-0.00135298 -0.00212453 -0.00289395 -0.0036605 -0.00442339 -0.00518187 -0.00593519 -0.00668259 -0.00742333 
-0.00815667 -0.00888188 -0.00959824 -0.010305 -0.0110015 -0.0116871 -0.012361 -0.0130226 -0.0136712 
-0.0143061 -0.0149268 -0.0155327 -0.016123 -0.0166973 -0.0172549 -0.0177954 -0.018318 -0.0188225 
-0.0193081 -0.0197746 -0.0202213 -0.0206478 -0.0210538 -0.0214388 -0.0218024 -0.0221443 -0.0224641 
-0.0227615 -0.0230362 -0.023288 -0.0235165 -0.0237216 -0.0239031 -0.0240607 -0.0241944 -0.0243039 
-0.0243892 -0.0244502 -0.0244868 -0.024499 -0.0488994 -0.048875 -0.0488019 -0.0486802 -0.0485099 
-0.0482913 -0.0480246 -0.0477099 -0.0473477 -0.0469384 -0.0464822 -0.0459797 -0.0454313 -0.0448377 
-0.0441994 -0.043517 -0.0427912 -0.0420228 -0.0412125 -0.0403611 -0.0394695 -0.0385385 -0.0375692 
-0.0365623 -0.035519 -0.0344404 -0.0333273 -0.0321811 -0.0310028 -0.0297936 -0.0285547 -0.0272873 
-0.0259927 -0.0246722 -0.0233271 -0.0219588 -0.0205686 -0.0191578 -0.017728 -0.0162805 -0.0148168 
-0.0133383 -0.0118465 -0.0103429 -0.00882897 -0.00730625 -0.00577626 -0.0042405 -0.00270052 -0.00115785 
0.000385981 0.00192942 0.00347094 0.005009 0.00654207 0.00806861 0.00958712 0.0110961 0.0125939 
0.0140793 0.0155506 0.0170064 0.0184452 0.0198657 0.0212663 0.0226458 0.0240027 0.0253356 
0.0266433 0.0279245 0.0291778 0.030402 0.0315959 0.0327583 0.0338881 0.0349841 0.0360452 
0.0370704 0.0380586 0.0390089 0.0399203 0.0407919 0.0416228 0.0424123 0.0431595 0.0438637 
0.0445241 0.0451401 0.0457112 0.0462367 0.0467161 0.0471489 0.0475348 0.0478732 0.0481639 
0.0484067 0.0486011 0.0487471 0.0488446 0.0488933 0.0488933 0.0488446 0.0487471 0.0486011 
0.0484067 0.0481639 0.0478732 0.0475348 0.0471489 0.0467161 0.0462367 0.0457112 0.0451401 
0.0445241 0.0438637 0.0431595 0.0424123 0.0416228 0.0407919 0.0399203 0.0390089 0.0380586 
0.0370704 0.0360452 0.0349841 0.0338881 0.0327583 0.0315959 0.030402 0.0291778 0.0279245 
0.0266433 0.0253356 0.0240027 0.0226458 0.0212663 0.0198657 0.0184452 0.0170064 0.0155506 
0.0140793 0.0125939 0.0110961 0.00958712 0.00806861 0.00654207 0.005009 0.00347094 0.00192942 
0.000385981 -0.00115785 -0.00270052 -0.0042405 -0.00577626 -0.00730625 -0.00882897 -0.0103429 -0.0118465 
-0.0133383 -0.0148168 -0.0162805 -0.017728 -0.0191578 -0.0205686 -0.0219588 -0.0233271 -0.0246722 
-0.0259927 -0.0272873 -0.0285547 -0.0297936 -0.0310028 -0.0321811 -0.0333273 -0.0344404 -0.035519 
-0.0365623 -0.0375692 -0.0385385 -0.0394695 -0.0403611 -0.0412125 -0.0420228 -0.0427912 -0.043517 
-0.0441994 -0.0448377 -0.0454313 -0.0459797 -0.0464822 -0.0469384 -0.0473477 -0.0477099 -0.0480246 
-0.0482913 -0.0485099 -0.0486802 -0.0488019 -0.048875 -0.0488994 -0.0731029 -0.0730664 -0.0729572 
-0.0727752 -0.0725206 -0.0721938 -0.071795 -0.0713247 -0.0707832 -0.0701712 -0.0694892 -0.068738 
-0.0679182 -0.0670308 -0.0660765 -0.0650564 -0.0639714 -0.0628226 -0.0616112 -0.0603384 -0.0590055 
-0.0576137 -0.0561646 -0.0546594 -0.0530997 -0.0514871 -0.0498232 -0.0481096 -0.0463481 -0.0445403 
-0.0426882 -0.0407935 -0.0388582 -0.0368841 -0.0348732 -0.0328276 -0.0307493 -0.0286403 -0.0265027 
-0.0243388 -0.0221506 -0.0199402 -0.0177101 -0.0154622 -0.013199 -0.0109226 -0.0086353 -0.0063394 
-0.00403718 -0.00173094 0.000577028 0.00288442 0.00518894 0.00748828 0.00978016 0.0120623 0.0143324 
0.0165882 0.0188275 0.021048 0.0232476 0.0254239 0.0275749 0.0296985 0.0317924 0.0338546 
0.0358831 0.0378758 0.0398308 0.0417461 0.0436197 0.0454499 0.0472347 0.0489725 0.0506615 
0.0522999 0.0538863 0.0554189 0.0568962 0.0583169 0.0596794 0.0609824 0.0622247 0.0634049 
0.0645219 0.0655746 0.0665619 0.0674829 0.0683366 0.0691222 0.0698389 0.070486 0.0710628 
0.0715687 0.0720034 0.0723662 0.072657 0.0728753 0.0730209 0.0730938 0.0730938 0.0730209 
0.0728753 0.072657 0.0723662 0.0720034 0.0715687 0.0710628 0.070486 0.0698389 0.0691222 
0.0683366 0.0674829 0.0665619 0.0655746 0.0645219 0.0634049 0.0622247 0.0609824 0.0596794 
0.0583169 0.0568962 0.0554189 0.0538863 0.0522999 0.0506615 0.0489725 0.0472347 0.0454499 
0.0436197 0.0417461 0.0398308 0.0378758 0.0358831 0.0338546 0.0317924 0.0296985 0.0275749 
0.0254239 0.0232476 0.021048 0.0188275 0.0165882 0.0143324 0.0120623 0.00978016 0.00748828 
0.00518894 0.00288442 0.000577028 -0.00173094 -0.00403718 -0.0063394 -0.0086353 -0.0109226 -0.013199 
-0.0154622 -0.0177101 -0.0199402 -0.0221506 -0.0243388 -0.0265027 -0.0286403 -0.0307493 -0.0328276 
-0.0348732 -0.0368841 -0.0388582 -0.0407935 -0.0426882 -0.0445403 -0.0463481 -0.0481096 -0.0498232 
-0.0514871 -0.0530997 -0.0546594 -0.0561646 -0.0576137 -0.0590055 -0.0603384 -0.0616112 -0.0628226 
-0.0639714 -0.0650564 -0.0660765 -0.0670308 -0.0679182 -0.068738 -0.0694892 -0.0701712 -0.0707832 
-0.0713247 -0.071795 -0.0721938 -0.0725206 -0.0727752 -0.0729572 -0.0730664 -0.0731029 -0.097012 
-0.0969636 -0.0968186 -0.0965771 -0.0962393 -0.0958056 -0.0952764 -0.0946522 -0.0939336 -0.0931215 
-0.0922164 -0.0912195 -0.0901316 -0.0889539 -0.0876876 -0.0863338 -0.0848939 -0.0833695 -0.0817619 
-0.0800728 -0.0783039 -0.076457 -0.0745338 -0.0725363 -0.0704666 -0.0683266 -0.0661184 -0.0638444 
-0.0615068 -0.0591078 -0.0566499 -0.0541355 -0.0515672 -0.0489474 -0.0462789 -0.0435642 -0.0408062 
-0.0380074 -0.0351707 -0.032299 -0.0293951 -0.0264619 -0.0235023 -0.0205193 -0.0175159 -0.0144949 
-0.0114596 -0.00841277 -0.00535759 -0.00229706 0.000765751 0.0038278 0.00688604 0.00993741 0.0129789 
0.0160074 0.01902 0.0220136 0.0249853 0.027932 0.0308509 0.0337391 0.0365936 0.0394117 
0.0421905 0.0449272 0.0476191 0.0502636 0.0528579 0.0553996 0.057886 0.0603148 0.0626834 
0.0649895 0.0672309 0.0694052 0.0715104 0.0735442 0.0755048 0.0773901 0.0791982 0.0809274 
0.082576 0.0841422 0.0856245 0.0870215 0.0883318 0.089554 0.0906869 0.0917294 0.0926805 
0.0935392 0.0943047 0.0949761 0.0955529 0.0960344 0.0964202 0.0967099 0.0969032 0.0969999 
0.0969999 0.0969032 0.0967099 0.0964202 0.0960344 0.0955529 0.0949761 0.0943047 0.0935392 
0.0926805 0.0917294 0.0906869 0.089554 0.0883318 0.0870215 0.0856245 0.0841422 0.082576 
0.0809274 0.0791982 0.0773901 0.0755048 0.0735442 0.0715104 0.0694052 0.0672309 0.0649895 
0.0626834 0.0603148 0.057886 0.0553996 0.0528579 0.0502636 0.0476191 0.0449272 0.0421905 
0.0394117 0.0365936 0.0337391 0.0308509 0.027932 0.0249853 0.0220136 0.01902 0.0160074 
0.0129789 0.00993741 0.00688604 0.0038278 0.000765751 -0.00229706 -0.00535759 -0.00841277 -0.0114596 
-0.0144949 -0.0175159 -0.0205193 -0.0235023 -0.0264619 -0.0293951 -0.032299 -0.0351707 -0.0380074 
-0.0408062 -0.0435642 -0.0462789 -0.0489474 -0.0515672 -0.0541355 -0.0566499 -0.0591078 -0.0615068 
-0.0638444 -0.0661184 -0.0683266 -0.0704666 -0.0725363 -0.0745338 -0.076457 -0.0783039 -0.0800728 
-0.0817619 -0.0833695 -0.0848939 -0.0863338 -0.0876876 -0.0889539 -0.0901316 -0.0912195 -0.0922164 
-0.0931215 -0.0939336 -0.0946522 -0.0952764 -0.0958056 -0.0962393 -0.0965771 -0.0968186 -0.0969636 
-0.097012 -0.12053 -0.12047 -0.12029 -0.11999 -0.11957 -0.119032 -0.118374 -0.117599 
-0.116706 -0.115697 -0.114572 -0.113334 -0.111982 -0.110519 -0.108946 -0.107264 -0.105475 
-0.103581 -0.101583 -0.0994847 -0.097287 -0.0949923 -0.0926029 -0.0901212 -0.0875497 -0.0848909 
-0.0821474 -0.0793221 -0.0764177 -0.0734372 -0.0703834 -0.0672595 -0.0640685 -0.0608137 -0.0574982 
-0.0541255 -0.0506987 -0.0472215 -0.0436971 -0.0401293 -0.0365214 -0.0328771 -0.0292 -0.0254938 
-0.0217622 -0.0180089 -0.0142377 -0.0104523 -0.00665642 -0.00285394 0.000951391 0.00475577 0.00855541 
0.0123465 0.0161253 0.0198881 0.023631 0.0273503 0.0310424 0.0347035 0.0383301 0.0419184 
0.045465 0.0489662 0.0524186 0.0558188 0.0591633 0.0624489 0.0656722 0.06883 0.0719193 
0.0749368 0.0778796 0.0807449 0.0835296 0.086231 0.0888465 0.0913735 0.0938093 0.0961517 
0.0983981 0.100547 0.102595 0.104541 0.106382 0.108118 0.109746 0.111264 0.112672 
0.113967 0.115149 0.116216 0.117167 0.118001 0.118718 0.119316 0.119795 0.120155 
0.120395 0.120515 0.120515 0.120395 0.120155 0.119795 0.119316 0.118718 0.118001 
0.117167 0.116216 0.115149 0.113967 0.112672 0.111264 0.109746 0.108118 0.106382 
0.104541 0.102595 0.100547 0.0983981 0.0961517 0.0938093 0.0913735 0.0888465 0.086231 
0.0835296 0.0807449 0.0778796 0.0749368 0.0719193 0.06883 0.0656722 0.0624489 0.0591633 
0.0558188 0.0524186 0.0489662 0.045465 0.0419184 0.0383301 0.0347035 0.0310424 0.0273503 
0.023631 0.0198881 0.0161253 0.0123465 0.00855541 0.00475577 0.000951391 -0.00285394 -0.00665642 
-0.0104523 -0.0142377 -0.0180089 -0.0217622 -0.0254938 -0.0292 -0.0328771 -0.0365214 -0.0401293 
-0.0436971 -0.0472215 -0.0506987 -0.0541255 -0.0574982 -0.0608137 -0.0640685 -0.0672595 -0.0703834 
-0.0734372 -0.0764177 -0.0793221 -0.0821474 -0.0848909 -0.0875497 -0.0901212 -0.0926029 -0.0949923 
-0.097287 -0.0994847 -0.101583 -0.103581 -0.105475 -0.107264 -0.108946 -0.110519 -0.111982 
-0.113334 -0.114572 -0.115697 -0.116706 -0.117599 -0.118374 -0.119032 -0.11957 -0.11999 
-0.12029 -0.12047 -0.12053 -0.143564 -0.143492 -0.143277 -0.14292 -0.14242 -0.141778 
-0.140995 -0.140071 -0.139008 -0.137806 -0.136467 -0.134992 -0.133382 -0.131639 -0.129765 
-0.127761 -0.125631 -0.123375 -0.120996 -0.118496 -0.115878 -0.113145 -0.110299 -0.107343 
-0.10428 -0.101113 -0.0978457 -0.0944804 -0.091021 -0.0874709 -0.0838336 -0.0801127 -0.0763119 
-0.0724351 -0.068486 -0.0644687 -0.0603872 -0.0562454 -0.0520476 -0.0477979 -0.0435005 -0.0391598 
-0.03478 -0.0303656 -0.0259209 -0.0214504 -0.0169585 -0.0124497 -0.00792845 -0.00339932 0.0011332 
0.00566459 0.0101903 0.0147059 0.0192068 0.0236886 0.0281468 0.0325769 0.0369745 0.0413353 
0.0456549 0.049929 0.0541532 0.0583236 0.0624357 0.0664857 0.0704693 0.0743828 0.078222 
0.0819833 0.0856629 0.0892571 0.0927623 0.096175 0.0994919 0.10271 0.105825 0.108835 
0.111736 0.114526 0.117202 0.119761 0.1222 0.124518 0.126712 0.128779 0.130718 
0.132527 0.134203 0.135746 0.137154 0.138424 0.139557 0.140551 0.141404 0.142117 
0.142688 0.143117 0.143403 0.143546 0.143546 0.143403 0.143117 0.142688 0.142117 
0.141404 0.140551 0.139557 0.138424 0.137154 0.135746 0.134203 0.132527 0.130718 
0.128779 0.126712 0.124518 0.1222 0.119761 0.117202 0.114526 0.111736 0.108835 
0.105825 0.10271 0.0994919 0.096175 0.0927623 0.0892571 0.0856629 0.0819833 0.078222 
0.0743828 0.0704693 0.0664857 0.0624357 0.0583236 0.0541532 0.049929 0.0456549 0.0413353 
0.0369745 0.0325769 0.0281468 0.0236886 0.0192068 0.0147059 0.0101903 0.00566459 0.0011332 
-0.00339932 -0.00792845 -0.0124497 -0.0169585 -0.0214504 -0.0259209 -0.0303656 -0.03478 -0.0391598 
-0.0435005 -0.0477979 -0.0520476 -0.0562454 -0.0603872 -0.0644687 -0.068486 -0.0724351 -0.0763119 
-0.0801127 -0.0838336 -0.0874709 -0.091021 -0.0944804 -0.0978457 -0.101113 -0.10428 -0.107343 
-0.110299 -0.113145 -0.115878 -0.118496 -0.120996 -0.123375 -0.125631 -0.127761 -0.129765 
-0.131639 -0.133382 -0.134992 -0.136467 -0.137806 -0.139008 -0.140071 -0.140995 -0.141778 
-0.14242 -0.14292 -0.143277 -0.143492 -0.143564 -0.166019 -0.165936 -0.165688 -0.165274 
-0.164696 -0.163954 -0.163049 -0.16198 -0.160751 -0.159361 -0.157812 -0.156106 -0.154244 
-0.152229 -0.150062 -0.147745 -0.145281 -0.142672 -0.139921 -0.13703 -0.134003 -0.130842 
-0.127551 -0.124133 -0.120591 -0.116929 -0.11315 -0.109258 -0.105258 -0.101152 -0.0969461 
-0.0926432 -0.088248 -0.0837648 -0.0791981 -0.0745524 -0.0698325 -0.0650429 -0.0601884 -0.055274 
-0.0503045 -0.0452849 -0.0402201 -0.0351152 -0.0299753 -0.0248055 -0.019611 -0.014397 -0.00916855 
-0.00393101 0.00131045 0.0065506 0.0117842 0.0170061 0.022211 0.0273938 0.0325493 0.0376723 
0.0427578 0.0478006 0.0527959 0.0577384 0.0626235 0.0674461 0.0722014 0.0768848 0.0814916 
0.0860171 0.0904569 0.0948065 0.0990616 0.103218 0.107271 0.111218 0.115054 0.118775 
0.122377 0.125858 0.129213 0.132439 0.135534 0.138493 0.141314 0.143994 0.146531 
0.148922 0.151164 0.153256 0.155194 0.156978 0.158606 0.160076 0.161386 0.162535 
0.163522 0.164346 0.165006 0.165502 0.165833 0.165998 0.165998 0.165833 0.165502 
0.165006 0.164346 0.163522 0.162535 0.161386 0.160076 0.158606 0.156978 0.155194 
0.153256 0.151164 0.148922 0.146531 0.143994 0.141314 0.138493 0.135534 0.132439 
0.129213 0.125858 0.122377 0.118775 0.115054 0.111218 0.107271 0.103218 0.0990616 
0.0948065 0.0904569 0.0860171 0.0814916 0.0768848 0.0722014 0.0674461 0.0626235 0.0577384 
0.0527959 0.0478006 0.0427578 0.0376723 0.0325493 0.0273938 0.022211 0.0170061 0.0117842 
0.0065506 0.00131045 -0.00393101 -0.00916855 -0.014397 -0.019611 -0.0248055 -0.0299753 -0.0351152 
-0.0402201 -0.0452849 -0.0503045 -0.055274 -0.0601884 -0.0650429 -0.0698325 -0.0745524 -0.0791981 
-0.0837648 -0.088248 -0.0926432 -0.0969461 -0.101152 -0.105258 -0.109258 -0.11315 -0.116929 
-0.120591 -0.124133 -0.127551 -0.130842 -0.134003 -0.13703 -0.139921 -0.142672 -0.145281 
-0.147745 -0.150062 -0.152229 -0.154244 -0.156106 -0.157812 -0.159361 -0.160751 -0.16198 
-0.163049 -0.163954 -0.164696 -0.165274 -0.165688 -0.165936 -0.166019 -0.187805 -0.187712 
-0.187431 -0.186963 -0.186309 -0.18547 -0.184445 -0.183237 -0.181846 -0.180274 -0.178522 
-0.176592 -0.174486 -0.172206 -0.169754 -0.167133 -0.164346 -0.161395 -0.158283 -0.155013 
-0.151588 -0.148013 -0.14429 -0.140423 -0.136416 -0.132273 -0.127999 -0.123596 -0.119071 
-0.114427 -0.109668 -0.104801 -0.0998287 -0.0947572 -0.0895912 -0.0843359 -0.0789965 -0.0735784 
-0.068087 -0.0625276 -0.056906 -0.0512276 -0.0454981 -0.0397233 -0.0339089 -0.0280607 -0.0221845 
-0.0162863 -0.0103717 -0.00444688 0.00148242 0.00741023 0.0133307 0.0192378 0.0251258 0.0309887 
0.0368207 0.042616 0.0483689 0.0540735 0.0597242 0.0653154 0.0708415 0.076297 0.0816764 
0.0869744 0.0921857 0.0973051 0.102328 0.107248 0.112061 0.116763 0.121349 0.125813 
0.130152 0.134361 0.138437 0.142374 0.14617 0.149819 0.15332 0.156667 0.159859 
0.162891 0.16576 0.168465 0.171001 0.173367 0.17556 0.177579 0.17942 0.181082 
0.182564 0.183864 0.184981 0.185913 0.18666 0.18722 0.187595 0.187782 0.187782 
0.187595 0.18722 0.18666 0.185913 0.184981 0.183864 0.182564 0.181082 0.17942 
0.177579 0.17556 0.173367 0.171001 0.168465 0.16576 0.162891 0.159859 0.156667 
0.15332 0.149819 0.14617 0.142374 0.138437 0.134361 0.130152 0.125813 0.121349 
0.116763 0.112061 0.107248 0.102328 0.0973051 0.0921857 0.0869744 0.0816764 0.076297 
0.0708415 0.0653154 0.0597242 0.0540735 0.0483689 0.042616 0.0368207 0.0309887 0.0251258 
0.0192378 0.0133307 0.00741023 0.00148242 -0.00444688 -0.0103717 -0.0162863 -0.0221845 -0.0280607 
-0.0339089 -0.0397233 -0.0454981 -0.0512276 -0.056906 -0.0625276 -0.068087 -0.0735784 -0.0789965 
-0.0843359 -0.0895912 -0.0947572 -0.0998287 -0.104801 -0.109668 -0.114427 -0.119071 -0.123596 
-0.127999 -0.132273 -0.136416 -0.140423 -0.14429 -0.148013 -0.151588 -0.155013 -0.158283 
-0.161395 -0.164346 -0.167133 -0.169754 -0.172206 -0.174486 -0.176592 -0.178522 -0.180274 
-0.181846 -0.183237 -0.184445 -0.18547 -0.186309 -0.186963 -0.187431 -0.187712 -0.187805 
-0.208836 -0.208732 -0.208419 -0.207899 -0.207172 -0.206239 -0.205099 -0.203756 -0.202209 
-0.200461 -0.198512 -0.196366 -0.194024 -0.191489 -0.188763 -0.185849 -0.182749 -0.179468 
-0.176007 -0.172371 -0.168563 -0.164587 -0.160447 -0.156147 -0.151692 -0.147085 -0.142332 
-0.137436 -0.132404 -0.12724 -0.121949 -0.116536 -0.111008 -0.105368 -0.0996236 -0.0937798 
-0.0878425 -0.0818177 -0.0757113 -0.0695294 -0.0632783 -0.056964 -0.050593 -0.0441715 -0.037706 
-0.0312029 -0.0246688 -0.01811 -0.0115332 -0.00494484 0.00164842 0.00824003 0.0148234 0.021392 
0.0279393 0.0344588 0.0409439 0.0473882 0.0537852 0.0601286 0.0664121 0.0726294 0.0787743 
0.0848407 0.0908225 0.0967137 0.102509 0.108201 0.113786 0.119257 0.12461 0.129838 
0.134937 0.139902 0.144726 0.149407 0.153939 0.158317 0.162538 0.166596 0.170488 
0.174211 0.177759 0.181131 0.184322 0.187329 0.19015 0.192781 0.19522 0.197464 
0.199511 0.20136 0.203008 0.204453 0.205695 0.206731 0.207562 0.208185 0.208601 
0.20881 0.20881 0.208601 0.208185 0.207562 0.206731 0.205695 0.204453 0.203008 
0.20136 0.199511 0.197464 0.19522 0.192781 0.19015 0.187329 0.184322 0.181131 
0.177759 0.174211 0.170488 0.166596 0.162538 0.158317 0.153939 0.149407 0.144726 
0.139902 0.134937 0.129838 0.12461 0.119257 0.113786 0.108201 0.102509 0.0967137 
0.0908225 0.0848407 0.0787743 0.0726294 0.0664121 0.0601286 0.0537852 0.0473882 0.0409439 
0.0344588 0.0279393 0.021392 0.0148234 0.00824003 0.00164842 -0.00494484 -0.0115332 -0.01811 
-0.0246688 -0.0312029 -0.037706 -0.0441715 -0.050593 -0.056964 -0.0632783 -0.0695294 -0.0757113 
-0.0818177 -0.0878425 -0.0937798 -0.0996236 -0.105368 -0.111008 -0.116536 -0.121949 -0.12724 
-0.132404 -0.137436 -0.142332 -0.147085 -0.151692 -0.156147 -0.160447 -0.164587 -0.168563 
-0.172371 -0.176007 -0.179468 -0.182749 -0.185849 -0.188763 -0.191489 -0.194024 -0.196366 
-0.198512 -0.200461 -0.202209 -0.203756 -0.205099 -0.206239 -0.207172 -0.207899 -0.208419 
-0.208732 -0.208836 -0.229025 -0.228911 -0.228569 -0.227998 -0.227201 -0.226177 -0.224928 
-0.223454 -0.221758 -0.21984 -0.217704 -0.21535 -0.212782 -0.210002 -0.207012 -0.203816 
-0.200417 -0.196818 -0.193023 -0.189035 -0.184859 -0.180499 -0.175959 -0.171243 -0.166357 
-0.161305 -0.156092 -0.150723 -0.145205 -0.139541 -0.133739 -0.127803 -0.121739 -0.115555 
-0.109255 -0.102846 -0.0963348 -0.0897275 -0.0830308 -0.0762513 -0.0693958 -0.0624711 -0.0554841 
-0.0484419 -0.0413513 -0.0342195 -0.0270536 -0.0198608 -0.0126481 -0.00542289 0.00180778 0.00903664 
0.0162565 0.0234601 0.0306404 0.0377901 0.0449022 0.0519695 0.058985 0.0659416 0.0728326 
0.079651 0.0863899 0.0930428 0.0996029 0.106064 0.112419 0.118662 0.124787 0.130787 
0.136657 0.142391 0.147982 0.153427 0.158718 0.163851 0.168821 0.173623 0.178251 
0.182702 0.18697 0.191053 0.194945 0.198642 0.202142 0.20544 0.208533 0.211418 
0.214093 0.216554 0.218799 0.220827 0.222634 0.224219 0.22558 0.226717 0.227628 